
     Program PWSCF v.7.3 starts on 31Dec2023 at  1: 3:29 

     This program is part of the open-source Quantum ESPRESSO suite
     for quantum simulation of materials; please cite
         "P. Giannozzi et al., J. Phys.:Condens. Matter 21 395502 (2009);
         "P. Giannozzi et al., J. Phys.:Condens. Matter 29 465901 (2017);
         "P. Giannozzi et al., J. Chem. Phys. 152 154105 (2020);
          URL http://www.quantum-espresso.org", 
     in publications or presentations arising from this work. More details at
     http://www.quantum-espresso.org/quote

     Parallel version (MPI), running on   512 processors

     MPI processes distributed on     4 nodes
     471094 MiB available memory on the printing compute node when the environment starts

     Waiting for input...
     Reading input from standard input

     Current dimensions of program PWSCF are:
     Max number of different atomic species (ntypx) = 10
     Max number of k-points (npk) =  40000
     Max angular momentum in pseudopotentials (lmaxx) =  4

     Atomic positions and unit cell read from directory:
     ./out/MOSE2_WS2.save/


     K-points division:     npool     =      16
     R & G space division:  proc/nbgrp/npool/nimage =      32
     Subspace diagonalization in iterative solution of the eigenvalue problem:
     a serial algorithm will be used


     Parallelization info
     --------------------
     sticks:   dense  smooth     PW     G-vecs:    dense   smooth      PW
     Min          39      39     13                10513    10513    1934
     Max          41      41     14                10539    10539    1957
     Sum        1261    1261    421               336547   336547   62247

     Using Slab Decomposition



     bravais-lattice index     =            4
     lattice parameter (alat)  =       6.0226  a.u.
     unit-cell volume          =    1780.7896 (a.u.)^3
     number of atoms/cell      =            3
     number of atomic types    =            2
     number of electrons       =        26.00
     number of Kohn-Sham states=           40
     kinetic-energy cutoff     =     125.0000  Ry
     charge density cutoff     =     500.0000  Ry
     Exchange-correlation= PBE
                           (   1   4   3   4   0   0   0)
     Non magnetic calculation with spin-orbit


     celldm(1)=   6.022557  celldm(2)=   0.000000  celldm(3)=   9.413241
     celldm(4)=   0.000000  celldm(5)=   0.000000  celldm(6)=   0.000000

     crystal axes: (cart. coord. in units of alat)
               a(1) = (   1.000000   0.000000   0.000000 )  
               a(2) = (  -0.500000   0.866025   0.000000 )  
               a(3) = (   0.000000   0.000000   9.413241 )  

     reciprocal axes: (cart. coord. in units 2 pi/alat)
               b(1) = (  1.000000  0.577350 -0.000000 )  
               b(2) = (  0.000000  1.154701  0.000000 )  
               b(3) = (  0.000000 -0.000000  0.106233 )  


     PseudoPot. # 1 for S  read from file:
     ./pseudo/S_PBE_FR.ABIv0.4.UPF
     MD5 check sum: cb31fbceef30f2df0e4149c1524337f0
     Pseudo is Norm-conserving + core correction, Zval =  6.0
     Generated using ONCVPSP code by D. R. Hamann
     Using radial grid of 1146 points, 10 beta functions with: 
                l(1) =   0
                l(2) =   0
                l(3) =   1
                l(4) =   1
                l(5) =   1
                l(6) =   1
                l(7) =   2
                l(8) =   2
                l(9) =   2
               l(10) =   2

     PseudoPot. # 2 for W  read from file:
     ./pseudo/W_PBE_FR.ABIv0.4.UPF
     MD5 check sum: 61c661dd69dbff0e24f36fb4dbb42623
     Pseudo is Norm-conserving + core correction, Zval = 14.0
     Generated using ONCVPSP code by D. R. Hamann
     Using radial grid of 1396 points, 14 beta functions with: 
                l(1) =   0
                l(2) =   0
                l(3) =   1
                l(4) =   1
                l(5) =   1
                l(6) =   1
                l(7) =   2
                l(8) =   2
                l(9) =   2
               l(10) =   2
               l(11) =   3
               l(12) =   3
               l(13) =   3
               l(14) =   3

     atomic species   valence    mass     pseudopotential
     S                 6.00    32.06500     S ( 1.00)
     W                14.00   183.84000     W ( 1.00)

     12 Sym. Ops. (no inversion) found



   Cartesian axes

     site n.     atom                  positions (alat units)
         1        W      tau(   1) = (   0.0000000   0.0000000   4.7066206  )
         2        S      tau(   2) = (  -0.0000000   0.5773503   5.1996910  )
         3        S      tau(   3) = (  -0.0000000   0.5773503   4.2135330  )

     number of k points=    21
                       cart. coord. in units 2pi/alat
        k(    1) = (   0.0010000   0.0005774   0.0000000), wk =   0.0277778
        k(    2) = (   0.0010000   0.1930274   0.0000000), wk =   0.0555556
        k(    3) = (   0.0010000   0.3854775   0.0000000), wk =   0.0555556
        k(    4) = (   0.0010000   0.5779276   0.0000000), wk =   0.0555556
        k(    5) = (   0.0010000   0.7703777   0.0000000), wk =   0.0555556
        k(    6) = (   0.0010000   0.9628278   0.0000000), wk =   0.0555556
        k(    7) = (   0.1676667   0.0968024   0.0000000), wk =   0.0277778
        k(    8) = (   0.1676667   0.2892525   0.0000000), wk =   0.0555556
        k(    9) = (   0.1676667   0.4817026   0.0000000), wk =   0.0555556
        k(   10) = (   0.1676667   0.6741527   0.0000000), wk =   0.0555556
        k(   11) = (   0.3343333   0.1930274   0.0000000), wk =   0.0277778
        k(   12) = (   0.3343333   0.3854775   0.0000000), wk =   0.0555556
        k(   13) = (   0.3343333   0.5779276   0.0000000), wk =   0.0555556
        k(   14) = (   0.5010000   0.2892525   0.0000000), wk =   0.0277778
        k(   15) = (   0.5010000   0.4817026   0.0000000), wk =   0.0555556
        k(   16) = (   0.6676667   0.3854775   0.0000000), wk =   0.0277778
        k(   17) = (   0.6676667   0.5779276   0.0000000), wk =   0.0555556
        k(   18) = (   0.8343333   0.4817026   0.0000000), wk =   0.0277778
        k(   19) = (   0.8343333   0.8666028   0.0000000), wk =   0.0555556
        k(   20) = (   0.8343333   1.0590528   0.0000000), wk =   0.0555556
        k(   21) = (   0.8343333   1.2515029   0.0000000), wk =   0.0555556

     Dense  grid:   336547 G-vectors     FFT dimensions: (  45,  45, 405)

     Estimated max dynamical RAM per process >      50.91 MB

     Estimated total dynamical RAM >      25.45 GB

     The potential is recalculated from file :
     ./out/MOSE2_WS2.save/charge-density

     Starting wfcs are   36 randomized atomic wfcs +    4 random wfcs

     Band Structure Calculation
     Davidson diagonalization with overlap

     ethr =  3.85E-13,  avg # of iterations = 43.0

     total cpu time spent up to now is       13.5 secs

     End of band structure calculation

          k = 0.0010 0.0006 0.0000 ( 42161 PWs)   bands (ev):

   -76.1438 -76.1438 -47.5210 -47.5210 -37.7961 -37.7961 -37.6488 -37.6488
   -17.0436 -17.0436 -15.4220 -15.4220  -8.6335  -8.6335  -5.2962  -5.2962
    -5.0338  -5.0338  -4.4226  -4.4226  -4.0417  -4.0416  -3.8254  -3.8254
    -2.3305  -2.3305   0.4766   0.4766   0.5079   0.5079   0.7931   0.7931
     0.7998   0.7998   2.6502   2.6502   3.0430   3.0430   3.2836   3.2836

          k = 0.0010 0.1930 0.0000 ( 42085 PWs)   bands (ev):

   -76.1397 -76.1397 -47.5366 -47.5366 -37.8107 -37.8107 -37.7099 -37.7098
   -16.6063 -16.6061 -15.2604 -15.2602  -8.1301  -8.1300  -6.1601  -6.1593
    -5.4727  -5.4722  -4.7538  -4.7523  -4.5135  -4.5131  -3.7280  -3.7272
    -2.6636  -2.6629  -0.0288  -0.0279   0.4126   0.4129   0.5292   0.5336
     1.2996   1.3032   3.4726   3.4728   3.5824   3.5825   4.0512   4.0512

          k = 0.0010 0.3855 0.0000 ( 42002 PWs)   bands (ev):

   -76.1314 -76.1314 -47.5680 -47.5680 -37.9056 -37.9055 -37.7607 -37.7606
   -15.5880 -15.5873 -14.8933 -14.8930  -8.0651  -8.0649  -6.8804  -6.8792
    -6.7290  -6.7276  -5.3830  -5.3827  -4.2673  -4.2662  -3.9406  -3.9361
    -3.4615  -3.4557   0.0870   0.0917   0.3966   0.3996   1.3509   1.3531
     2.1671   2.1695   4.2892   4.2896   4.8698   4.8709   4.9512   4.9524

          k = 0.0010 0.5779 0.0000 ( 42018 PWs)   bands (ev):

   -76.1273 -76.1273 -47.5837 -47.5837 -37.9707 -37.9706 -37.7657 -37.7657
   -14.9502 -14.9492 -14.6823 -14.6822  -8.7698  -8.7693  -7.4424  -7.4422
    -6.7187  -6.7180  -5.7100  -5.7097  -4.4571  -4.4569  -3.6468  -3.6383
    -3.1884  -3.1789   0.4339   0.4365   0.9978   1.0031   1.7817   1.7826
     2.4283   2.4296   2.7796   2.7803   5.1950   5.1952   5.5506   5.5507

          k = 0.0010 0.7704 0.0000 ( 42000 PWs)   bands (ev):

   -76.1315 -76.1315 -47.5678 -47.5678 -37.9049 -37.9048 -37.7606 -37.7605
   -15.5943 -15.5937 -14.8955 -14.8952  -8.0586  -8.0583  -6.8784  -6.8772
    -6.7262  -6.7249  -5.3791  -5.3789  -4.2652  -4.2641  -3.9436  -3.9392
    -3.4606  -3.4549   0.0844   0.0891   0.3934   0.3964   1.3456   1.3479
     2.1637   2.1661   4.2944   4.2948   4.8640   4.8651   4.9502   4.9513

          k = 0.0010 0.9628 0.0000 ( 42081 PWs)   bands (ev):

   -76.1397 -76.1397 -47.5365 -47.5365 -37.8104 -37.8104 -37.7093 -37.7092
   -16.6112 -16.6110 -15.2622 -15.2620  -8.1354  -8.1352  -6.1511  -6.1504
    -5.4647  -5.4642  -4.7574  -4.7558  -4.5087  -4.5083  -3.7262  -3.7254
    -2.6587  -2.6581  -0.0259  -0.0251   0.4148   0.4151   0.5272   0.5317
     1.2933   1.2969   3.4662   3.4664   3.5762   3.5763   4.0446   4.0446

          k = 0.1677 0.0968 0.0000 ( 42081 PWs)   bands (ev):

   -76.1397 -76.1397 -47.5367 -47.5367 -37.8108 -37.8108 -37.7101 -37.7101
   -16.6038 -16.6036 -15.2595 -15.2593  -8.1275  -8.1274  -6.1642  -6.1641
    -5.4766  -5.4764  -4.7514  -4.7512  -4.5158  -4.5155  -3.7287  -3.7285
    -2.6658  -2.6656  -0.0301  -0.0295   0.4116   0.4118   0.5321   0.5327
     1.3044   1.3046   3.4758   3.4758   3.5856   3.5856   4.0545   4.0545

          k = 0.1677 0.2893 0.0000 ( 42007 PWs)   bands (ev):

   -76.1335 -76.1335 -47.5617 -47.5587 -37.8663 -37.8610 -37.7703 -37.7647
   -15.8933 -15.8409 -14.9903 -14.9838  -7.6499  -7.5651  -6.9371  -6.9053
    -6.2888  -6.2398  -5.7833  -5.7101  -4.7302  -4.4683  -3.7193  -3.6615
    -3.2722  -3.0486  -0.4443  -0.1741   0.4110   0.4337   0.7164   0.7928
     2.1830   2.3253   4.4677   4.4978   4.5892   4.5937   5.1495   5.1510

          k = 0.1677 0.4817 0.0000 ( 42042 PWs)   bands (ev):

   -76.1273 -76.1273 -47.5866 -47.5807 -37.9558 -37.9333 -37.7947 -37.7934
   -15.0358 -14.9050 -14.6681 -14.6555  -8.2595  -8.2185  -7.5377  -7.5102
    -6.5978  -6.5400  -5.8332  -5.7956  -5.2198  -4.9931  -4.3043  -4.2968
    -3.0709  -2.7604   0.1491   0.1925   0.8106   1.1156   1.3692   1.4091
     2.5250   2.6095   3.8991   3.9606   5.7523   5.8384   6.1083   6.1240

          k = 0.1677 0.6742 0.0000 ( 42042 PWs)   bands (ev):

   -76.1273 -76.1273 -47.5865 -47.5806 -37.9555 -37.9331 -37.7946 -37.7933
   -15.0394 -14.9089 -14.6694 -14.6568  -8.2561  -8.2159  -7.5330  -7.5057
    -6.5971  -6.5398  -5.8342  -5.7969  -5.2194  -4.9924  -4.3009  -4.2933
    -3.0739  -2.7638   0.1496   0.1888   0.8094   1.1098   1.3659   1.4050
     2.5266   2.6097   3.9105   3.9711   5.7478   5.8316   6.0992   6.1146

          k = 0.3343 0.1930 0.0000 ( 42010 PWs)   bands (ev):

   -76.1314 -76.1314 -47.5681 -47.5681 -37.9059 -37.9059 -37.7607 -37.7607
   -15.5846 -15.5844 -14.8922 -14.8919  -8.0683  -8.0682  -6.8815  -6.8804
    -6.7303  -6.7289  -5.3848  -5.3847  -4.2679  -4.2678  -3.9368  -3.9368
    -3.4591  -3.4591   0.0906   0.0908   0.3997   0.3998   1.3544   1.3548
     2.1699   2.1700   4.2866   4.2867   4.8726   4.8737   4.9519   4.9530

          k = 0.3343 0.3855 0.0000 ( 42042 PWs)   bands (ev):

   -76.1273 -76.1273 -47.5866 -47.5807 -37.9560 -37.9336 -37.7944 -37.7931
   -15.0354 -14.9050 -14.6682 -14.6557  -8.2644  -8.2231  -7.5371  -7.5096
    -6.5997  -6.5416  -5.8318  -5.7947  -5.2107  -4.9828  -4.3057  -4.2978
    -3.0715  -2.7608   0.1511   0.1956   0.8101   1.1157   1.3747   1.4141
     2.5202   2.6038   3.8886   3.9506   5.7545   5.8374   6.1075   6.1232

          k = 0.3343 0.5779 0.0000 ( 41989 PWs)   bands (ev):

   -76.1252 -76.1252 -47.5956 -47.5868 -37.9678 -37.9207 -37.8389 -37.8230
   -14.7414 -14.5332 -14.5291 -14.5150  -8.0702  -8.0186  -7.6588  -7.6203
    -6.9814  -6.6455  -6.2735  -6.1657  -5.5518  -5.4987  -4.7264  -4.6568
    -2.5212  -2.0933  -0.5398  -0.5096   0.9972   1.0129   1.5768   1.9739
     3.0708   3.3453   4.3039   4.3065   4.4780   4.9197   6.9196   6.9613

          k = 0.5010 0.2893 0.0000 ( 42026 PWs)   bands (ev):

   -76.1273 -76.1273 -47.5837 -47.5837 -37.9707 -37.9707 -37.7657 -37.7657
   -14.9497 -14.9497 -14.6823 -14.6823  -8.7695  -8.7695  -7.4423  -7.4423
    -6.7184  -6.7184  -5.7099  -5.7099  -4.4570  -4.4570  -3.6425  -3.6425
    -3.1837  -3.1837   0.4352   0.4352   1.0004   1.0004   1.7821   1.7821
     2.4290   2.4290   2.7800   2.7800   5.1950   5.1950   5.5506   5.5506

          k = 0.5010 0.4817 0.0000 ( 42042 PWs)   bands (ev):

   -76.1273 -76.1273 -47.5864 -47.5805 -37.9553 -37.9331 -37.7943 -37.7930
   -15.0425 -14.9129 -14.6708 -14.6583  -8.2577  -8.2180  -7.5277  -7.5006
    -6.5983  -6.5412  -5.8336  -5.7972  -5.2099  -4.9816  -4.2990  -4.2909
    -3.0773  -2.7677   0.1520   0.1881   0.8078   1.1041   1.3679   1.4059
     2.5235   2.6043   3.9115   3.9717   5.7453   5.8238   6.0892   6.1044

          k = 0.6677 0.3855 0.0000 ( 42002 PWs)   bands (ev):

   -76.1315 -76.1315 -47.5677 -47.5677 -37.9045 -37.9045 -37.7605 -37.7605
   -15.5973 -15.5970 -14.8966 -14.8963  -8.0552  -8.0552  -6.8774  -6.8763
    -6.7247  -6.7234  -5.3771  -5.3770  -4.2637  -4.2636  -3.9428  -3.9428
    -3.4573  -3.4573   0.0854   0.0856   0.3933   0.3933   1.3439   1.3444
     2.1631   2.1633   4.2970   4.2971   4.8610   4.8621   4.9498   4.9508

          k = 0.6677 0.5779 0.0000 ( 41997 PWs)   bands (ev):

   -76.1335 -76.1335 -47.5613 -47.5584 -37.8652 -37.8601 -37.7698 -37.7642
   -15.9045 -15.8529 -14.9946 -14.9882  -7.6480  -7.5639  -6.9369  -6.9063
    -6.2739  -6.2230  -5.7762  -5.7012  -4.7242  -4.4633  -3.7154  -3.6570
    -3.2685  -3.0473  -0.4437  -0.1749   0.4048   0.4277   0.7097   0.7878
     2.1719   2.3160   4.4520   4.4814   4.5722   4.5767   5.1301   5.1316

          k = 0.8343 0.4817 0.0000 ( 42077 PWs)   bands (ev):

   -76.1398 -76.1398 -47.5364 -47.5364 -37.8103 -37.8103 -37.7090 -37.7090
   -16.6137 -16.6135 -15.2631 -15.2630  -8.1379  -8.1379  -6.1463  -6.1462
    -5.4605  -5.4603  -4.7585  -4.7583  -4.5061  -4.5058  -3.7250  -3.7248
    -2.6560  -2.6558  -0.0243  -0.0237   0.4159   0.4162   0.5282   0.5288
     1.2919   1.2921   3.4631   3.4632   3.5731   3.5732   4.0413   4.0413

          k = 0.8343 0.8666 0.0000 ( 42001 PWs)   bands (ev):

   -76.1335 -76.1335 -47.5615 -47.5585 -37.8657 -37.8606 -37.7700 -37.7644
   -15.8989 -15.8469 -14.9924 -14.9860  -7.6489  -7.5644  -6.9371  -6.9058
    -6.2814  -6.2314  -5.7797  -5.7056  -4.7271  -4.4657  -3.7173  -3.6593
    -3.2704  -3.0480  -0.4440  -0.1745   0.4079   0.4307   0.7131   0.7903
     2.1775   2.3206   4.4598   4.4896   4.5807   4.5852   5.1398   5.1413

          k = 0.8343 1.0591 0.0000 ( 42042 PWs)   bands (ev):

   -76.1273 -76.1273 -47.5865 -47.5806 -37.9558 -37.9336 -37.7941 -37.7929
   -15.0386 -14.9090 -14.6696 -14.6571  -8.2660  -8.2251  -7.5318  -7.5047
    -6.6008  -6.5429  -5.8313  -5.7950  -5.2012  -4.9720  -4.3038  -4.2954
    -3.0749  -2.7647   0.1535   0.1950   0.8084   1.1100   1.3768   1.4151
     2.5171   2.5983   3.8896   3.9512   5.7519   5.8295   6.0975   6.1129

          k = 0.8343 1.2515 0.0000 ( 42044 PWs)   bands (ev):

   -76.1273 -76.1273 -47.5864 -47.5805 -37.9554 -37.9333 -37.7940 -37.7928
   -15.0421 -14.9129 -14.6709 -14.6584  -8.2626  -8.2226  -7.5271  -7.5002
    -6.6002  -6.5427  -5.8322  -5.7963  -5.2008  -4.9714  -4.3004  -4.2919
    -3.0779  -2.7681   0.1539   0.1912   0.8073   1.1042   1.3734   1.4109
     2.5188   2.5986   3.9010   3.9618   5.7472   5.8227   6.0883   6.1035

     Writing all to output data dir ./out/MOSE2_WS2.save/ :
     XML data file, pseudopotentials, collected wavefunctions

     init_run     :      0.21s CPU      0.28s WALL (       1 calls)
     electrons    :     12.86s CPU     12.97s WALL (       1 calls)

     Called by init_run:
     wfcinit      :      0.00s CPU      0.03s WALL (       1 calls)
     potinit      :      0.04s CPU      0.06s WALL (       1 calls)
     hinit0       :      0.06s CPU      0.06s WALL (       1 calls)

     Called by electrons:
     c_bands      :     12.85s CPU     12.96s WALL (       1 calls)
     v_of_rho     :      0.03s CPU      0.03s WALL (       1 calls)

     Called by c_bands:
     init_us_2    :      0.00s CPU      0.01s WALL (       2 calls)
     init_us_2:cp :      0.00s CPU      0.01s WALL (       2 calls)
     cegterg      :     10.68s CPU     10.78s WALL (       6 calls)

     Called by *egterg:
     cdiaghg      :      0.57s CPU      0.58s WALL (      91 calls)
     h_psi        :      5.94s CPU      6.00s WALL (      97 calls)
     g_psi        :      0.02s CPU      0.02s WALL (      89 calls)

     Called by h_psi:
     h_psi:calbec :      1.14s CPU      1.15s WALL (      97 calls)
     vloc_psi     :      3.70s CPU      3.74s WALL (      97 calls)
     add_vuspsi   :      1.06s CPU      1.06s WALL (      97 calls)

     General routines
     calbec       :      1.14s CPU      1.15s WALL (      97 calls)
     fft          :      0.03s CPU      0.03s WALL (      14 calls)
     fftw         :      3.32s CPU      3.35s WALL (    7496 calls)
     davcio       :      0.00s CPU      0.01s WALL (       4 calls)

     Parallel routines

     PWSCF        :     13.34s CPU     13.94s WALL


   This run was terminated on:   1: 3:43  31Dec2023            

=------------------------------------------------------------------------------=
   JOB DONE.
=------------------------------------------------------------------------------=
