
     Program PWSCF v.7.3 starts on 31Dec2023 at  0:42:39 

     This program is part of the open-source Quantum ESPRESSO suite
     for quantum simulation of materials; please cite
         "P. Giannozzi et al., J. Phys.:Condens. Matter 21 395502 (2009);
         "P. Giannozzi et al., J. Phys.:Condens. Matter 29 465901 (2017);
         "P. Giannozzi et al., J. Chem. Phys. 152 154105 (2020);
          URL http://www.quantum-espresso.org", 
     in publications or presentations arising from this work. More details at
     http://www.quantum-espresso.org/quote

     Parallel version (MPI), running on   512 processors

     MPI processes distributed on     4 nodes
     473437 MiB available memory on the printing compute node when the environment starts

     Reading input from scf.in

     Current dimensions of program PWSCF are:
     Max number of different atomic species (ntypx) = 10
     Max number of k-points (npk) =  40000
     Max angular momentum in pseudopotentials (lmaxx) =  4

     K-points division:     npool     =      16
     R & G space division:  proc/nbgrp/npool/nimage =      32
     Subspace diagonalization in iterative solution of the eigenvalue problem:
     a serial algorithm will be used

     Message from routine divide_et_impera:
     suboptimal parallelization: some nodes have no k-points

     Parallelization info
     --------------------
     sticks:   dense  smooth     PW     G-vecs:    dense   smooth      PW
     Min          39      39     11                10513    10513    1563
     Max          41      41     13                10539    10539    1587
     Sum        1261    1261    361               336547   336547   50531

     Using Slab Decomposition



     bravais-lattice index     =            4
     lattice parameter (alat)  =       6.0226  a.u.
     unit-cell volume          =    1780.7896 (a.u.)^3
     number of atoms/cell      =            3
     number of atomic types    =            2
     number of electrons       =        26.00
     number of Kohn-Sham states=           26
     kinetic-energy cutoff     =     125.0000  Ry
     charge density cutoff     =     500.0000  Ry
     scf convergence threshold =      1.0E-10
     mixing beta               =       0.7000
     number of iterations used =            8  plain     mixing
     Exchange-correlation= PBE
                           (   1   4   3   4   0   0   0)
     Non magnetic calculation with spin-orbit


     celldm(1)=   6.022557  celldm(2)=   0.000000  celldm(3)=   9.413241
     celldm(4)=   0.000000  celldm(5)=   0.000000  celldm(6)=   0.000000

     crystal axes: (cart. coord. in units of alat)
               a(1) = (   1.000000   0.000000   0.000000 )  
               a(2) = (  -0.500000   0.866025   0.000000 )  
               a(3) = (   0.000000   0.000000   9.413241 )  

     reciprocal axes: (cart. coord. in units 2 pi/alat)
               b(1) = (  1.000000  0.577350 -0.000000 )  
               b(2) = (  0.000000  1.154701  0.000000 )  
               b(3) = (  0.000000 -0.000000  0.106233 )  


     PseudoPot. # 1 for S  read from file:
     ./pseudo/S_PBE_FR.ABIv0.4.UPF
     MD5 check sum: cb31fbceef30f2df0e4149c1524337f0
     Pseudo is Norm-conserving + core correction, Zval =  6.0
     Generated using ONCVPSP code by D. R. Hamann
     Using radial grid of 1146 points, 10 beta functions with: 
                l(1) =   0
                l(2) =   0
                l(3) =   1
                l(4) =   1
                l(5) =   1
                l(6) =   1
                l(7) =   2
                l(8) =   2
                l(9) =   2
               l(10) =   2

     PseudoPot. # 2 for W  read from file:
     ./pseudo/W_PBE_FR.ABIv0.4.UPF
     MD5 check sum: 61c661dd69dbff0e24f36fb4dbb42623
     Pseudo is Norm-conserving + core correction, Zval = 14.0
     Generated using ONCVPSP code by D. R. Hamann
     Using radial grid of 1396 points, 14 beta functions with: 
                l(1) =   0
                l(2) =   0
                l(3) =   1
                l(4) =   1
                l(5) =   1
                l(6) =   1
                l(7) =   2
                l(8) =   2
                l(9) =   2
               l(10) =   2
               l(11) =   3
               l(12) =   3
               l(13) =   3
               l(14) =   3

     atomic species   valence    mass     pseudopotential
     S                 6.00    32.06500     S ( 1.00)
     W                14.00   183.84000     W ( 1.00)

     12 Sym. Ops. (no inversion) found



   Cartesian axes

     site n.     atom                  positions (alat units)
         1        W      tau(   1) = (   0.0000000   0.0000000   4.7066206  )
         2        S      tau(   2) = (  -0.0000000   0.5773503   5.1996910  )
         3        S      tau(   3) = (  -0.0000000   0.5773503   4.2135330  )

     number of k points=     7
                       cart. coord. in units 2pi/alat
        k(    1) = (   0.0000000   0.0000000   0.0000000), wk =   0.0277778
        k(    2) = (   0.0000000   0.1924501   0.0000000), wk =   0.1666667
        k(    3) = (   0.0000000   0.3849002   0.0000000), wk =   0.1666667
        k(    4) = (   0.0000000  -0.5773503   0.0000000), wk =   0.0833333
        k(    5) = (   0.1666667   0.2886751   0.0000000), wk =   0.1666667
        k(    6) = (   0.1666667   0.4811252   0.0000000), wk =   0.3333333
        k(    7) = (   0.3333333   0.5773503   0.0000000), wk =   0.0555556

     Dense  grid:   336547 G-vectors     FFT dimensions: (  45,  45, 405)

     Estimated max dynamical RAM per process >      56.84 MB

     Estimated total dynamical RAM >      23.61 GB

     Initial potential from superposition of free atoms

     starting charge      25.9994, renormalised to      26.0000

     negative rho (up, down):  6.251E-06 0.000E+00
     Starting wfcs are   36 randomized atomic wfcs

     total cpu time spent up to now is        0.6 secs

     Self-consistent Calculation

     iteration #  1     ecut=   125.00 Ry     beta= 0.70
     Davidson diagonalization with overlap
     ethr =  1.00E-02,  avg # of iterations =  2.1

     Threshold (ethr) on eigenvalues was too large:
     Diagonalizing with lowered threshold

     Davidson diagonalization with overlap
     ethr =  3.26E-04,  avg # of iterations =  3.9

     total cpu time spent up to now is        1.4 secs

     total energy              =    -196.29493716 Ry
     estimated scf accuracy    <       0.09637146 Ry

     iteration #  2     ecut=   125.00 Ry     beta= 0.70
     Davidson diagonalization with overlap
     ethr =  3.71E-04,  avg # of iterations =  3.1

     total cpu time spent up to now is        1.9 secs

     total energy              =    -196.30504680 Ry
     estimated scf accuracy    <       0.06119201 Ry

     iteration #  3     ecut=   125.00 Ry     beta= 0.70
     Davidson diagonalization with overlap
     ethr =  2.35E-04,  avg # of iterations =  4.1

     total cpu time spent up to now is        2.4 secs

     total energy              =    -196.31624562 Ry
     estimated scf accuracy    <       0.04628780 Ry

     iteration #  4     ecut=   125.00 Ry     beta= 0.70
     Davidson diagonalization with overlap
     ethr =  1.78E-04,  avg # of iterations =  2.9

     total cpu time spent up to now is        2.9 secs

     total energy              =    -196.32384757 Ry
     estimated scf accuracy    <       0.00109635 Ry

     iteration #  5     ecut=   125.00 Ry     beta= 0.70
     Davidson diagonalization with overlap
     ethr =  4.22E-06,  avg # of iterations =  5.0

     total cpu time spent up to now is        3.4 secs

     total energy              =    -196.32468503 Ry
     estimated scf accuracy    <       0.00044735 Ry

     iteration #  6     ecut=   125.00 Ry     beta= 0.70
     Davidson diagonalization with overlap
     ethr =  1.72E-06,  avg # of iterations =  1.9

     total cpu time spent up to now is        3.8 secs

     total energy              =    -196.32463132 Ry
     estimated scf accuracy    <       0.00016518 Ry

     iteration #  7     ecut=   125.00 Ry     beta= 0.70
     Davidson diagonalization with overlap
     ethr =  6.35E-07,  avg # of iterations =  4.0

     total cpu time spent up to now is        4.3 secs

     total energy              =    -196.32468720 Ry
     estimated scf accuracy    <       0.00009242 Ry

     iteration #  8     ecut=   125.00 Ry     beta= 0.70
     Davidson diagonalization with overlap
     ethr =  3.55E-07,  avg # of iterations =  2.4

     total cpu time spent up to now is        4.7 secs

     total energy              =    -196.32469299 Ry
     estimated scf accuracy    <       0.00001057 Ry

     iteration #  9     ecut=   125.00 Ry     beta= 0.70
     Davidson diagonalization with overlap
     ethr =  4.06E-08,  avg # of iterations =  4.4

     total cpu time spent up to now is        5.3 secs

     total energy              =    -196.32469615 Ry
     estimated scf accuracy    <       0.00000002 Ry

     iteration # 10     ecut=   125.00 Ry     beta= 0.70
     Davidson diagonalization with overlap
     ethr =  6.79E-11,  avg # of iterations =  8.4

     total cpu time spent up to now is        6.1 secs

     total energy              =    -196.32469620 Ry
     estimated scf accuracy    <       0.00000015 Ry

     iteration # 11     ecut=   125.00 Ry     beta= 0.70
     Davidson diagonalization with overlap
     ethr =  6.79E-11,  avg # of iterations =  4.4

     total cpu time spent up to now is        6.8 secs

     total energy              =    -196.32469623 Ry
     estimated scf accuracy    <          5.5E-09 Ry

     iteration # 12     ecut=   125.00 Ry     beta= 0.70
     Davidson diagonalization with overlap
     ethr =  2.10E-11,  avg # of iterations =  1.0

     total cpu time spent up to now is        7.1 secs

     total energy              =    -196.32469623 Ry
     estimated scf accuracy    <          5.2E-09 Ry

     iteration # 13     ecut=   125.00 Ry     beta= 0.70
     Davidson diagonalization with overlap
     ethr =  2.01E-11,  avg # of iterations =  1.9

     total cpu time spent up to now is        7.5 secs

     total energy              =    -196.32469623 Ry
     estimated scf accuracy    <          1.7E-09 Ry

     iteration # 14     ecut=   125.00 Ry     beta= 0.70
     Davidson diagonalization with overlap
     ethr =  6.35E-12,  avg # of iterations =  3.6

     total cpu time spent up to now is        8.0 secs

     total energy              =    -196.32469623 Ry
     estimated scf accuracy    <          2.5E-10 Ry

     iteration # 15     ecut=   125.00 Ry     beta= 0.70
     Davidson diagonalization with overlap
     ethr =  9.44E-13,  avg # of iterations =  4.4

     total cpu time spent up to now is        8.5 secs

     End of self-consistent calculation

          k = 0.0000 0.0000 0.0000 ( 42165 PWs)   bands (ev):

   -76.1439 -76.1439 -47.5210 -47.5210 -37.7961 -37.7961 -37.6488 -37.6488
   -17.0436 -17.0436 -15.4221 -15.4221  -8.6335  -8.6335  -5.2962  -5.2962
    -5.0338  -5.0338  -4.4226  -4.4226  -4.0417  -4.0417  -3.8254  -3.8254
    -2.3305  -2.3305

          k = 0.0000 0.1925 0.0000 ( 42085 PWs)   bands (ev):

   -76.1397 -76.1397 -47.5366 -47.5366 -37.8106 -37.8106 -37.7096 -37.7096
   -16.6087 -16.6086 -15.2613 -15.2611  -8.1327  -8.1327  -6.1553  -6.1552
    -5.4686  -5.4684  -4.7550  -4.7547  -4.5110  -4.5107  -3.7268  -3.7267
    -2.6609  -2.6607

          k = 0.0000 0.3849 0.0000 ( 42006 PWs)   bands (ev):

   -76.1315 -76.1315 -47.5679 -47.5679 -37.9052 -37.9052 -37.7606 -37.7606
   -15.5910 -15.5907 -14.8944 -14.8941  -8.0618  -8.0617  -6.8794  -6.8782
    -6.7276  -6.7263  -5.3809  -5.3809  -4.2658  -4.2657  -3.9398  -3.9398
    -3.4583  -3.4582

          k = 0.0000-0.5774 0.0000 ( 42020 PWs)   bands (ev):

   -76.1273 -76.1273 -47.5837 -47.5837 -37.9707 -37.9707 -37.7657 -37.7657
   -14.9497 -14.9497 -14.6823 -14.6823  -8.7696  -8.7696  -7.4423  -7.4423
    -6.7184  -6.7184  -5.7099  -5.7099  -4.4570  -4.4570  -3.6425  -3.6425
    -3.1837  -3.1837

          k = 0.1667 0.2887 0.0000 ( 42011 PWs)   bands (ev):

   -76.1335 -76.1335 -47.5615 -47.5586 -37.8658 -37.8606 -37.7701 -37.7645
   -15.8989 -15.8469 -14.9924 -14.9860  -7.6489  -7.5644  -6.9371  -6.9059
    -6.2813  -6.2314  -5.7798  -5.7057  -4.7272  -4.4658  -3.7173  -3.6593
    -3.2704  -3.0480

          k = 0.1667 0.4811 0.0000 ( 42046 PWs)   bands (ev):

   -76.1273 -76.1273 -47.5865 -47.5806 -37.9557 -37.9334 -37.7944 -37.7931
   -15.0390 -14.9089 -14.6695 -14.6570  -8.2611  -8.2206  -7.5324  -7.5052
    -6.5990  -6.5414  -5.8327  -5.7960  -5.2103  -4.9822  -4.3024  -4.2944
    -3.0744  -2.7643

          k = 0.3333 0.5774 0.0000 ( 41991 PWs)   bands (ev):

   -76.1252 -76.1252 -47.5957 -47.5868 -37.9678 -37.9207 -37.8389 -37.8231
   -14.7414 -14.5332 -14.5291 -14.5150  -8.0702  -8.0187  -7.6587  -7.6202
    -6.9816  -6.6456  -6.2736  -6.1658  -5.5518  -5.4987  -4.7265  -4.6568
    -2.5212  -2.0933

     highest occupied level (ev):    -2.0933

!    total energy              =    -196.32469623 Ry
     estimated scf accuracy    <          3.2E-12 Ry

     The total energy is the sum of the following terms:
     one-electron contribution =   -1936.51273100 Ry
     hartree contribution      =     966.03829185 Ry
     xc contribution           =     -45.97528287 Ry
     ewald contribution        =     820.12502580 Ry

     convergence has been achieved in  15 iterations

     Writing all to output data dir ./out/MOSE2_WS2.save/ :
     XML data file, charge density, pseudopotentials, collected wavefunctions

     init_run     :      0.33s CPU      0.38s WALL (       1 calls)
     electrons    :      7.72s CPU      7.92s WALL (       1 calls)

     Called by init_run:
     wfcinit      :      0.15s CPU      0.16s WALL (       1 calls)
     potinit      :      0.03s CPU      0.04s WALL (       1 calls)
     hinit0       :      0.05s CPU      0.06s WALL (       1 calls)

     Called by electrons:
     c_bands      :      5.98s CPU      6.04s WALL (      16 calls)
     sum_band     :      0.71s CPU      0.77s WALL (      16 calls)
     v_of_rho     :      0.29s CPU      0.31s WALL (      16 calls)
     mix_rho      :      0.53s CPU      0.55s WALL (      16 calls)

     Called by c_bands:
     init_us_2    :      0.07s CPU      0.07s WALL (      33 calls)
     init_us_2:cp :      0.07s CPU      0.07s WALL (      33 calls)
     cegterg      :      5.13s CPU      5.19s WALL (      16 calls)

     Called by *egterg:
     cdiaghg      :      0.13s CPU      0.13s WALL (      78 calls)
     h_psi        :      4.02s CPU      4.07s WALL (      80 calls)
     g_psi        :      0.01s CPU      0.01s WALL (      63 calls)

     Called by h_psi:
     h_psi:calbec :      0.81s CPU      0.82s WALL (      80 calls)
     vloc_psi     :      2.44s CPU      2.48s WALL (      80 calls)
     add_vuspsi   :      0.74s CPU      0.74s WALL (      80 calls)

     General routines
     calbec       :      0.81s CPU      0.82s WALL (      80 calls)
     fft          :      0.35s CPU      0.39s WALL (     254 calls)
     ffts         :      0.07s CPU      0.08s WALL (      64 calls)
     fftw         :      2.52s CPU      2.56s WALL (    5992 calls)

     Parallel routines

     PWSCF        :      8.27s CPU      8.71s WALL


   This run was terminated on:   0:42:48  31Dec2023            

=------------------------------------------------------------------------------=
   JOB DONE.
=------------------------------------------------------------------------------=
