
     Program PWSCF v.7.3 starts on 31Dec2023 at 19: 9:53 

     This program is part of the open-source Quantum ESPRESSO suite
     for quantum simulation of materials; please cite
         "P. Giannozzi et al., J. Phys.:Condens. Matter 21 395502 (2009);
         "P. Giannozzi et al., J. Phys.:Condens. Matter 29 465901 (2017);
         "P. Giannozzi et al., J. Chem. Phys. 152 154105 (2020);
          URL http://www.quantum-espresso.org", 
     in publications or presentations arising from this work. More details at
     http://www.quantum-espresso.org/quote

     Parallel version (MPI), running on   512 processors

     MPI processes distributed on     4 nodes
     411823 MiB available memory on the printing compute node when the environment starts

     Waiting for input...
     Reading input from standard input

     Current dimensions of program PWSCF are:
     Max number of different atomic species (ntypx) = 10
     Max number of k-points (npk) =  40000
     Max angular momentum in pseudopotentials (lmaxx) =  4

     Atomic positions and unit cell read from directory:
     ./out/MOSE2_WS2.save/


     K-points division:     npool     =      16
     R & G space division:  proc/nbgrp/npool/nimage =      32
     Subspace diagonalization in iterative solution of the eigenvalue problem:
     a serial algorithm will be used


     Parallelization info
     --------------------
     sticks:   dense  smooth     PW     G-vecs:    dense   smooth      PW
     Min          39      39     13                10513    10513    2069
     Max          41      41     14                10539    10539    2114
     Sum        1261    1261    421               336547   336547   66535

     Using Slab Decomposition



     bravais-lattice index     =            4
     lattice parameter (alat)  =       6.0226  a.u.
     unit-cell volume          =    1780.7896 (a.u.)^3
     number of atoms/cell      =            3
     number of atomic types    =            2
     number of electrons       =        26.00
     number of Kohn-Sham states=           40
     kinetic-energy cutoff     =     125.0000  Ry
     charge density cutoff     =     500.0000  Ry
     Exchange-correlation= PBE
                           (   1   4   3   4   0   0   0)
     Non magnetic calculation with spin-orbit


     celldm(1)=   6.022557  celldm(2)=   0.000000  celldm(3)=   9.413241
     celldm(4)=   0.000000  celldm(5)=   0.000000  celldm(6)=   0.000000

     crystal axes: (cart. coord. in units of alat)
               a(1) = (   1.000000   0.000000   0.000000 )  
               a(2) = (  -0.500000   0.866025   0.000000 )  
               a(3) = (   0.000000   0.000000   9.413241 )  

     reciprocal axes: (cart. coord. in units 2 pi/alat)
               b(1) = (  1.000000  0.577350 -0.000000 )  
               b(2) = (  0.000000  1.154701  0.000000 )  
               b(3) = (  0.000000 -0.000000  0.106233 )  


     PseudoPot. # 1 for S  read from file:
     ./pseudo/S_PBE_FR.ABIv0.4.UPF
     MD5 check sum: cb31fbceef30f2df0e4149c1524337f0
     Pseudo is Norm-conserving + core correction, Zval =  6.0
     Generated using ONCVPSP code by D. R. Hamann
     Using radial grid of 1146 points, 10 beta functions with: 
                l(1) =   0
                l(2) =   0
                l(3) =   1
                l(4) =   1
                l(5) =   1
                l(6) =   1
                l(7) =   2
                l(8) =   2
                l(9) =   2
               l(10) =   2

     PseudoPot. # 2 for W  read from file:
     ./pseudo/W_PBE_FR.ABIv0.4.UPF
     MD5 check sum: 61c661dd69dbff0e24f36fb4dbb42623
     Pseudo is Norm-conserving + core correction, Zval = 14.0
     Generated using ONCVPSP code by D. R. Hamann
     Using radial grid of 1396 points, 14 beta functions with: 
                l(1) =   0
                l(2) =   0
                l(3) =   1
                l(4) =   1
                l(5) =   1
                l(6) =   1
                l(7) =   2
                l(8) =   2
                l(9) =   2
               l(10) =   2
               l(11) =   3
               l(12) =   3
               l(13) =   3
               l(14) =   3

     atomic species   valence    mass     pseudopotential
     S                 6.00    32.06500     S ( 1.00)
     W                14.00   183.84000     W ( 1.00)

     12 Sym. Ops. (no inversion) found



   Cartesian axes

     site n.     atom                  positions (alat units)
         1        W      tau(   1) = (   0.0000000   0.0000000   4.7066206  )
         2        S      tau(   2) = (  -0.0000000   0.5773503   5.1996910  )
         3        S      tau(   3) = (  -0.0000000   0.5773503   4.2135330  )

     number of k points=   360

     Number of k-points >= 100: set verbosity='high' to print them.

     Dense  grid:   336547 G-vectors     FFT dimensions: (  45,  45, 405)

     Estimated max dynamical RAM per process >      50.91 MB

     Estimated total dynamical RAM >      25.45 GB

     The potential is recalculated from file :
     ./out/MOSE2_WS2.save/charge-density

     Starting wfcs are   36 randomized atomic wfcs +    4 random wfcs

     Band Structure Calculation
     Davidson diagonalization with overlap

     ethr =  3.85E-13,  avg # of iterations = 45.6

     total cpu time spent up to now is      159.5 secs

     End of band structure calculation

     Number of k-points >= 100: set verbosity='high' to print the bands.

     Writing all to output data dir ./out/MOSE2_WS2.save/ :
     XML data file, pseudopotentials, collected wavefunctions

     init_run     :      0.19s CPU      0.25s WALL (       1 calls)
     electrons    :    158.16s CPU    158.97s WALL (       1 calls)

     Called by init_run:
     wfcinit      :      0.00s CPU      0.02s WALL (       1 calls)
     potinit      :      0.03s CPU      0.05s WALL (       1 calls)
     hinit0       :      0.05s CPU      0.06s WALL (       1 calls)

     Called by electrons:
     c_bands      :    158.16s CPU    158.97s WALL (       1 calls)
     v_of_rho     :      0.02s CPU      0.03s WALL (       1 calls)

     Called by c_bands:
     init_us_2    :      0.04s CPU      0.04s WALL (      23 calls)
     init_us_2:cp :      0.04s CPU      0.04s WALL (      23 calls)
     cegterg      :    125.08s CPU    125.79s WALL (      65 calls)

     Called by *egterg:
     cdiaghg      :      7.16s CPU      7.17s WALL (    1076 calls)
     h_psi        :     68.10s CPU     68.65s WALL (    1141 calls)
     g_psi        :      0.20s CPU      0.21s WALL (    1053 calls)

     Called by h_psi:
     h_psi:calbec :     13.55s CPU     13.73s WALL (    1141 calls)
     vloc_psi     :     43.02s CPU     43.38s WALL (    1141 calls)
     add_vuspsi   :     11.12s CPU     11.14s WALL (    1141 calls)

     General routines
     calbec       :     13.55s CPU     13.72s WALL (    1141 calls)
     fft          :      0.02s CPU      0.03s WALL (      14 calls)
     fftw         :     38.48s CPU     38.77s WALL (   84960 calls)
     davcio       :      0.05s CPU      0.10s WALL (      46 calls)

     Parallel routines

     PWSCF        :   2m39.57s CPU   2m43.38s WALL


   This run was terminated on:  19:12:37  31Dec2023            

=------------------------------------------------------------------------------=
   JOB DONE.
=------------------------------------------------------------------------------=
